 Gaussian 09, Revision D.01,
 Gaussian 09:  EM64L-G09RevD.01 24-Apr-2013

 -----------------------
 #p B97D/6-31G* opt freq
 -----------------------

 --------
 opt freq
 --------
 Symbolic Z-matrix:
 Charge =  0 Multiplicity = 1

 SCF Done:  E(RB97D) =  -79.7664283485     A.U. after    9 cycles
 SCF Done:  E(RB97D) =  -79.7707002566     A.U. after   10 cycles
 SCF Done:  E(RB97D) =  -79.7708096721     A.U. after    6 cycles
 SCF Done:  E(RB97D) =  -79.7708187890     A.U. after    6 cycles
 Optimization completed.
    -- Stationary point found.
 Normal termination of Gaussian 09 at Thu Mar 17 13:20:42 2016.

 -------------------------------------------------------------------
 #P Geom=AllCheck Guess=TCheck SCRF=Check GenChk RB97D/6-31G(d) Freq
 -------------------------------------------------------------------

 Structure from the checkpoint file:  "ethane.chk"
 --------
 opt freq
 --------
 Charge =  0 Multiplicity = 1

                         Standard orientation:
 ---------------------------------------------------------------------
 Center     Atomic      Atomic             Coordinates (Angstroms)
 Number     Number       Type             X           Y           Z
 ---------------------------------------------------------------------
      1          6           0        0.000000    0.000000    0.769609
      2          1           0       -0.513920    0.890692    1.167237
      3          1           0       -0.514401   -0.890414    1.167237
      4          1           0        1.028322   -0.000278    1.167237
      5          6           0        0.000000    0.000000   -0.769609
      6          1           0        0.514401   -0.890414   -1.167237
      7          1           0       -1.028322   -0.000278   -1.167237
      8          1           0        0.513920    0.890692   -1.167237
 ---------------------------------------------------------------------

 SCF Done:  E(RB97D) =  -79.7708187890     A.U. after    1 cycles

 The electronic state is 1-A1.
 Alpha  occ. eigenvalues --   -9.90126  -9.90116  -0.67385  -0.54777  -0.37851
 Alpha  occ. eigenvalues --   -0.37851  -0.31529  -0.29503  -0.29503
 Alpha virt. eigenvalues --    0.08618   0.13447   0.13808   0.13808   0.16687
 Alpha virt. eigenvalues --    0.16687   0.20791   0.48784   0.51577   0.51577
 Alpha virt. eigenvalues --    0.60664   0.60664   0.62256   0.83703   0.83703

 Mulliken charges:
               1
     1  C   -0.446018
     2  H    0.148673
     3  H    0.148673
     4  H    0.148673
     5  C   -0.446018
     6  H    0.148673
     7  H    0.148673
     8  H    0.148673
 Sum of Mulliken charges =   0.00000

 Dipole moment (field-independent basis, Debye):
    X=              0.0000    Y=              0.0000    Z=              0.0000  Tot=              0.0000
 Quadrupole moment (field-independent basis, Debye-Ang):
   XX=            -14.6406   YY=            -14.6406   ZZ=            -15.1975
   XY=              0.0000   XZ=              0.0000   YZ=              0.0000

  Exact polarizability:  22.919   0.000  22.918   0.001   0.000  24.641
 Approx polarizability:  33.358   0.000  33.358   0.000   0.000  32.174

                      1                      2                      3
                     A1                      E                      E
 Frequencies --    303.5120               799.1531               799.1549
 Red. masses --      1.0078                 1.0564                 1.0564
 Frc consts  --      0.0547                 0.3975                 0.3975
 IR Inten    --      0.0000                 4.8431                 4.8451

                      4                      5                      6
                     A1                      E                      E
 Frequencies --    964.0251              1203.0943              1203.0957
 Red. masses --      3.2601                 1.4601                 1.4601
 Frc consts  --      1.7851                 1.2452                 1.2452
 IR Inten    --      0.0000                 0.0000                 0.0000

                      7                      8                      9
                     A2                     A1                      E
 Frequencies --   1390.8631              1408.1193              1488.1529
 Red. masses --      1.1983                 1.2551                 1.0204
 Frc consts  --      1.3658                 1.4662                 1.3314
 IR Inten    --      0.1006                 0.0000                 0.0001

                     10                     11                     12
                      E                      E                      E
 Frequencies --   1488.1536              1496.5059              1496.5071
 Red. masses --      1.0204                 1.0623                 1.0623
 Frc consts  --      1.3314                 1.4016                 1.4016
 IR Inten    --      0.0001                 7.0457                 7.0456

                     13                     14                     15
                     A1                     A2                      E
 Frequencies --   2949.8111              2952.5815              3020.8233
 Red. masses --      1.0370                 1.0341                 1.1030
 Frc consts  --      5.3166                 5.3113                 5.9305
 IR Inten    --      0.0000                69.2848                 0.0000

                     16                     17                     18
                      E                      E                      E
 Frequencies --   3020.8276              3044.8859              3044.8883
 Red. masses --      1.1030                 1.1040                 1.1040
 Frc consts  --      5.9305                 6.0307                 6.0307
 IR Inten    --      0.0000                84.1406                84.1421

 - Thermochemistry -
 -------------------
 Temperature   298.150 Kelvin.  Pressure   1.00000 Atm.
 Atom     1 has atomic number  6 and mass  12.00000

 Molecular mass:    30.04695 amu.
 Principal axes and moments of inertia in atomic units:
                           1         2         3
     Eigenvalues --    22.83454  91.60117  91.60117
           X            0.00000   0.68191   0.73143
           Y            0.00000   0.73143  -0.68191
           Z            1.00000   0.00000   0.00000
 This molecule is a prolate symmetric top.
 Rotational symmetry number  6.
 Rotational temperatures (Kelvin)      3.79310     0.94555     0.94555
 Rotational constants (GHZ):          79.03557    19.70216    19.70216
 Zero-point vibrational energy     191846.0 (Joules/Mol)
                                   45.85231 (Kcal/Mol)
 Warning -- explicit consideration of   1 degrees of freedom as
           vibrations may cause significant error
 Vibrational temperatures:    436.69  1149.80  1149.80  1387.02  1730.98
          (Kelvin)           1730.98  2001.14  2025.97  2141.12  2141.12
                             2153.14  2153.14  4244.12  4248.10  4346.29
                             4346.29  4380.91  4380.91

 Zero-point correction=                           0.073070 (Hartree/Particle)
 Thermal correction to Energy=                    0.076587
 Thermal correction to Enthalpy=                  0.077531
 Thermal correction to Gibbs Free Energy=         0.051613
 Sum of electronic and zero-point Energies=            -79.697748
 Sum of electronic and thermal Energies=               -79.694232
 Sum of electronic and thermal Enthalpies=             -79.693288
 Sum of electronic and thermal Free Energies=          -79.719206

                     E (Thermal)             CV                S
                      KCal/Mol        Cal/Mol-Kelvin    Cal/Mol-Kelvin
 Total                   48.059             10.278             54.550
 Electronic               0.000              0.000              0.000
 Translational            0.889              2.981             36.134
 Rotational               0.889              2.981             16.328
 Vibrational             46.281              4.317              2.088
 Vibration     1          0.695              1.667              1.397

 Optimization completed.
    -- Stationary point found.
 Normal termination of Gaussian 09 at Thu Mar 17 13:20:46 2016.
