 Gaussian 09, Revision B.01,

 --------------------------
 #p b3lyp opt freq 6-31g(d)
 --------------------------

 -----------------------------------------------------------------
 ethane optimiation and frequency calculation with small basis set
 -----------------------------------------------------------------
 Symbolic Z-matrix:
 Charge =  0 Multiplicity = 1

 SCF Done:  E(RB3LYP) =  -79.8302189759     A.U. after    9 cycles
 SCF Done:  E(RB3LYP) =  -79.8304157601     A.U. after    7 cycles
 SCF Done:  E(RB3LYP) =  -79.8304173356     A.U. after    6 cycles
 Optimization completed.
    -- Stationary point found.
 Normal termination of Gaussian 09 at Sat Feb 11 13:40:40 2017.

 --------------------------------------------------------------------
 #P Geom=AllCheck Guess=TCheck SCRF=Check GenChk RB3LYP/6-31G(d) Freq
 --------------------------------------------------------------------

 ethane optimiation and frequency calculation with small basis set
 -----------------------------------------------------------------
 Redundant internal coordinates taken from checkpoint file:
 ethane.chk
 Charge =  0 Multiplicity = 1

 SCF Done:  E(RB3LYP) =  -79.8304173356     A.U. after    1 cycles

  Exact polarizability:  22.413   0.000  22.413   0.000   0.000  23.934
 Approx polarizability:  28.746   0.000  28.746   0.000   0.000  27.505

                     1                      2                      3
                    A1                      E                      E
 Frequencies --   312.0252               831.5129               831.5131
 Red. masses --     1.0078                 1.0575                 1.0575
 Frc consts  --     0.0578                 0.4308                 0.4308
 IR Inten    --     0.0000                 4.6644                 4.6631

                     4                      5                      6
                    A1                      E                      E
 Frequencies --  1009.0182              1234.9180              1234.9212
 Red. masses --     3.2597                 1.4643                 1.4643
 Frc consts  --     1.9554                 1.3157                 1.3157
 IR Inten    --     0.0000                 0.0000                 0.0000

                     7                      8                      9
                    A2                     A1                      E
 Frequencies --  1431.8482              1453.2529              1531.8369
 Red. masses --     1.1981                 1.2557                 1.0199
 Frc consts  --     1.4472                 1.5625                 1.4100
 IR Inten    --     0.2625                 0.0000                 0.0001

                    10                     11                     12
                     E                      E                      E
 Frequencies --  1531.8375              1537.4544              1537.4562
 Red. masses --     1.0199                 1.0620                 1.0620
 Frc consts  --     1.4100                 1.4790                 1.4790
 IR Inten    --     0.0001                 7.4629                 7.4649

                    13                     14                     15
                    A1                     A2                      E
 Frequencies --  3048.4946              3049.3467              3100.1494
 Red. masses --     1.0366                 1.0343                 1.1021
 Frc consts  --     5.6759                 5.6662                 6.2407
 IR Inten    --     0.0000                58.9256                 0.0000

                    16                     17                     18
                     E                      E                      E
 Frequencies --  3100.1495              3124.4935              3124.4954
 Red. masses --     1.1021                 1.1031                 1.1031
 Frc consts  --     6.2407                 6.3447                 6.3447
 IR Inten    --     0.0000                73.7448                73.7370

 - Thermochemistry -
 -------------------
 Temperature   298.150 Kelvin.  Pressure   1.00000 Atm.
 Atom     1 has atomic number  6 and mass  12.00000

 Molecular mass:    30.04695 amu.
 Principal axes and moments of inertia in atomic units:
                           1         2         3
     Eigenvalues --    22.50882  90.74798  90.74798
           X            0.00000   0.98639   0.16440
           Y            0.00000  -0.16440   0.98639
           Z            1.00000   0.00000   0.00000
 This molecule is a prolate symmetric top.
 Rotational symmetry number  6.
 Rotational temperatures (Kelvin)      3.84799     0.95444     0.95444
 Rotational constants (GHZ):          80.17928    19.88740    19.88740
 Zero-point vibrational energy     197531.7 (Joules/Mol)
                                   47.21121 (Kcal/Mol)
 Warning -- explicit consideration of   1 degrees of freedom as
           vibrations may cause significant error
 Vibrational temperatures:    448.93  1196.36  1196.36  1451.75  1776.77
          (Kelvin)           1776.77  2060.11  2090.90  2203.97  2203.97
                             2212.05  2212.05  4386.10  4387.32  4460.42
                             4460.42  4495.44  4495.45

 Zero-point correction=                           0.075236 (Hartree/Particle)
 Thermal correction to Energy=                    0.078708
 Thermal correction to Enthalpy=                  0.079652
 Thermal correction to Gibbs Free Energy=         0.053814
 Sum of electronic and zero-point Energies=            -79.755181
 Sum of electronic and thermal Energies=               -79.751710
 Sum of electronic and thermal Enthalpies=             -79.750766
 Sum of electronic and thermal Free Energies=          -79.776603

                     E (Thermal)             CV                S
                      KCal/Mol        Cal/Mol-Kelvin    Cal/Mol-Kelvin
 Total                   49.390              9.996             54.379
 Electronic               0.000              0.000              0.000
 Translational            0.889              2.981             36.134
 Rotational               0.889              2.981             16.295
 Vibrational             47.612              4.034              1.950
 Vibration     1          0.700              1.651              1.352

 Optimization completed.
    -- Stationary point found.
 Normal termination of Gaussian 09 at Sat Feb 11 13:40:44 2017.
 Gaussian 09:  EM64M-G09RevB.01 12-Aug-2010

 --------------------------------------------------------------------
 #p b3lyp 6-311g(d,p) SCRF(smd,solvent=toluene) geom=check guess=read
 --------------------------------------------------------------------

 single point energy correction with larger basis set in solvent
 ---------------------------------------------------------------
 Redundant internal coordinates taken from checkpoint file:
 ethane.chk
 Charge =  0 Multiplicity = 1

                         Standard orientation:
 ---------------------------------------------------------------------
 Center     Atomic      Atomic             Coordinates (Angstroms)
 Number     Number       Type             X           Y           Z
 ---------------------------------------------------------------------
      1          6           0        0.000000    0.000000    0.765499
      2          1           0       -0.510272    0.884299    1.164267
      3          1           0       -0.510689   -0.884058    1.164267
      4          1           0        1.020961   -0.000241    1.164267
      5          6           0        0.000000    0.000000   -0.765499
      6          1           0        0.510689   -0.884058   -1.164267
      7          1           0       -1.020961   -0.000241   -1.164267
      8          1           0        0.510272    0.884299   -1.164267
 ---------------------------------------------------------------------

 SCF Done:  E(RB3LYP) =  -79.8584070354     A.U. after    8 cycles

 The electronic state is 1-A1.
 Alpha  occ. eigenvalues --  -10.15452 -10.15430  -0.74894  -0.61260  -0.43146
 Alpha  occ. eigenvalues --   -0.43146  -0.36605  -0.34077  -0.34077
 Alpha virt. eigenvalues --    0.05206   0.09124   0.10791   0.10791   0.14351
 Alpha virt. eigenvalues --    0.14351   0.22837   0.30158   0.30158   0.33346
 Alpha virt. eigenvalues --    0.33493   0.33493   0.53392   0.57058   0.58601

 Mulliken atomic charges:
              1
     1  C   -0.327948
     2  H    0.109316
     3  H    0.109316
     4  H    0.109316
     5  C   -0.327948
     6  H    0.109316
     7  H    0.109316
     8  H    0.109316
 Sum of Mulliken atomic charges =   0.00000

 Dipole moment (field-independent basis, Debye):
    X=              0.0000    Y=              0.0000    Z=              0.0000  Tot=              0.0000
 Quadrupole moment (field-independent basis, Debye-Ang):
   XX=            -15.0025   YY=            -15.0025   ZZ=            -15.6689
   XY=              0.0000   XZ=              0.0000   YZ=              0.0000

 Normal termination of Gaussian 09 at Sat Feb 11 13:40:46 2017.
